Program Version,EnergyPlus, Version 8.8.0-7c3bbe4830, YMD=2022.12.02 10:53
1,5,Environment Title[],Latitude[deg],Longitude[deg],Time Zone[],Elevation[m]
2,6,Day of Simulation[],Month[],Day of Month[],DST Indicator[1=yes 0=no],Hour[],StartMinute[],EndMinute[],DayType
3,3,Cumulative Day of Simulation[],Month[],Day of Month[],DST Indicator[1=yes 0=no],DayType  ! When Daily Report Variables Requested
4,2,Cumulative Days of Simulation[],Month[]  ! When Monthly Report Variables Requested
5,1,Cumulative Days of Simulation[] ! When Run Period Report Variables Requested
1843,1,ELECTRICITY:UNIT_1 [J] !Hourly
1853,1,GAS:UNIT_1 [J] !Hourly
1873,1,PROPANE:UNIT_1 [m3] !Hourly
1863,1,FUELOIL:UNIT_1 [m3] !Hourly
1833,1,PV:ELECTRICITY_1 [J] !Hourly
End of Data Dictionary
1,DENVER INTL AP CO 2500 SQFT,  39.83,-104.65,  -7.00,1650.00
2,1, 1, 1, 0, 1, 0.00,60.00,Tuesday
1833,0.0
1843,8229292.5070269419
1853,0.0
1863,0.0
1873,0.0
2,1, 1, 1, 0, 2, 0.00,60.00,Tuesday
1833,0.0
1843,10435786.464448475
1853,0.0
1863,0.0
1873,0.0
2,1, 1, 1, 0, 3, 0.00,60.00,Tuesday
1833,0.0
1843,9773287.125241515
1853,1552992.9995615967
1863,0.0
1873,0.0
2,1, 1, 1, 0, 4, 0.00,60.00,Tuesday
1833,0.0
1843,9740767.245754118
1853,0.0
1863,0.0
1873,0.0
2,1, 1, 1, 0, 5, 0.00,60.00,Tuesday
1833,0.0
1843,9283727.211940049
1853,1553201.3693714936
1863,0.0
1873,0.0
2,1, 1, 1, 0, 6, 0.00,60.00,Tuesday
1833,0.0
1843,8987022.258537122
1853,0.0
1863,0.0
1873,0.0
2,1, 1, 1, 0, 7, 0.00,60.00,Tuesday
1833,0.0
1843,14342967.933847923
1853,0.0
1863,0.0
1873,0.0
2,1, 1, 1, 0, 8, 0.00,60.00,Tuesday
1833,0.0
1843,8353849.099164013
1853,1594924.946307761
1863,0.0
1873,0.0
2,1, 1, 1, 0, 9, 0.00,60.00,Tuesday
1833,0.0
1843,7121177.334360903
1853,5936468.884059638
1863,0.0
1873,0.0
2,1, 1, 1, 0,10, 0.00,60.00,Tuesday
1833,0.0
1843,5725302.504640108
1853,21314317.202025035
1863,0.0
1873,0.0
2,1, 1, 1, 0,11, 0.00,60.00,Tuesday
1833,0.0
1843,6664748.4550319849
1853,13447937.49530582
1863,0.0
1873,0.0
2,1, 1, 1, 0,12, 0.00,60.00,Tuesday
1833,0.0
1843,5242597.39203488
1853,0.0
1863,0.0
1873,0.0
2,1, 1, 1, 0,13, 0.00,60.00,Tuesday
1833,0.0
1843,5011029.274500458
1853,3571835.055344411
1863,0.0
1873,0.0
2,1, 1, 1, 0,14, 0.00,60.00,Tuesday
1833,0.0
1843,5026748.403337552
1853,2104459.7435840589
1863,0.0
1873,0.0
2,1, 1, 1, 0,15, 0.00,60.00,Tuesday
1833,0.0
1843,4450755.07710964
1853,26827795.762321589
1863,0.0
1873,0.0
2,1, 1, 1, 0,16, 0.00,60.00,Tuesday
1833,0.0
1843,5221148.541483901
1853,3842748.80828875
1863,0.0
1873,0.0
2,1, 1, 1, 0,17, 0.00,60.00,Tuesday
1833,0.0
1843,5825850.463306389
1853,3412175.0655610288
1863,0.0
1873,0.0
2,1, 1, 1, 0,18, 0.00,60.00,Tuesday
1833,0.0
1843,8759125.103118893
1853,2089546.4630236717
1863,0.0
1873,0.0
2,1, 1, 1, 0,19, 0.00,60.00,Tuesday
1833,0.0
1843,7559254.172201483
1853,1754122.161426603
1863,0.0
1873,0.0
2,1, 1, 1, 0,20, 0.00,60.00,Tuesday
1833,0.0
1843,7423299.829283499
1853,3824841.164178152
1863,0.0
1873,0.0
2,1, 1, 1, 0,21, 0.00,60.00,Tuesday
1833,0.0
1843,6610424.733966717
1853,16630854.88553223
1863,0.0
1873,0.0
2,1, 1, 1, 0,22, 0.00,60.00,Tuesday
1833,0.0
1843,6670396.409087699
1853,0.0
1863,0.0
1873,0.0
2,1, 1, 1, 0,23, 0.00,60.00,Tuesday
1833,0.0
1843,6335103.79627259
1853,0.0
1863,0.0
1873,0.0
2,1, 1, 1, 0,24, 0.00,60.00,Tuesday
1833,0.0
1843,5559122.474436643
1853,1601333.4130902056
1863,0.0
1873,0.0
2,2, 1, 2, 0, 1, 0.00,60.00,Wednesday
1833,0.0
1843,5253818.145090466
1853,0.0
1863,0.0
1873,0.0
2,2, 1, 2, 0, 2, 0.00,60.00,Wednesday
1833,0.0
1843,5366914.809367049
1853,1553217.6876287619
1863,0.0
1873,0.0
2,2, 1, 2, 0, 3, 0.00,60.00,Wednesday
1833,0.0
1843,5326187.176298183
1853,0.0
1863,0.0
1873,0.0
2,2, 1, 2, 0, 4, 0.00,60.00,Wednesday
1833,0.0
1843,5756900.054367496
1853,0.0
1863,0.0
1873,0.0
2,2, 1, 2, 0, 5, 0.00,60.00,Wednesday
1833,0.0
1843,5798302.288393472
1853,1553234.7982016814
1863,0.0
1873,0.0
2,2, 1, 2, 0, 6, 0.00,60.00,Wednesday
1833,0.0
1843,4399094.699260989
1853,33552653.463248418
1863,0.0
1873,0.0
2,2, 1, 2, 0, 7, 0.00,60.00,Wednesday
1833,0.0
1843,10112298.022091987
1853,14437493.892522745
1863,0.0
1873,0.0
2,2, 1, 2, 0, 8, 0.00,60.00,Wednesday
1833,0.0
1843,5903494.085865333
1853,10151249.597987397
1863,0.0
1873,0.0
2,2, 1, 2, 0, 9, 0.00,60.00,Wednesday
1833,0.0
1843,5852186.325554511
1853,6668787.794608817
1863,0.0
1873,0.0
2,2, 1, 2, 0,10, 0.00,60.00,Wednesday
1833,0.0
1843,5547241.598417666
1853,0.0
1863,0.0
1873,0.0
2,2, 1, 2, 0,11, 0.00,60.00,Wednesday
1833,0.0
1843,5679592.214699727
1853,1670655.6040936569
1863,0.0
1873,0.0
2,2, 1, 2, 0,12, 0.00,60.00,Wednesday
1833,0.0
1843,6060486.847509984
1853,5352077.244392383
1863,0.0
1873,0.0
2,2, 1, 2, 0,13, 0.00,60.00,Wednesday
1833,0.0
1843,4401795.671412933
1853,3899757.9399174868
1863,0.0
1873,0.0
2,2, 1, 2, 0,14, 0.00,60.00,Wednesday
1833,0.0
1843,4312493.517556096
1853,0.0
1863,0.0
1873,0.0
2,2, 1, 2, 0,15, 0.00,60.00,Wednesday
1833,0.0
1843,4148943.3678562624
1853,2092785.0779586144
1863,0.0
1873,0.0
2,2, 1, 2, 0,16, 0.00,60.00,Wednesday
1833,0.0
1843,4362312.674057575
1853,1204086.4977717682
1863,0.0
1873,0.0
2,2, 1, 2, 0,17, 0.00,60.00,Wednesday
1833,0.0
1843,4996822.178756626
1853,3106466.7974515606
1863,0.0
1873,0.0
2,2, 1, 2, 0,18, 0.00,60.00,Wednesday
1833,0.0
1843,6692576.376798623
1853,1423825.6751138594
1863,0.0
1873,0.0
2,2, 1, 2, 0,19, 0.00,60.00,Wednesday
1833,0.0
1843,6499611.910688565
1853,1682435.2203283054
1863,0.0
1873,0.0
2,2, 1, 2, 0,20, 0.00,60.00,Wednesday
1833,0.0
1843,6407384.903616421
1853,1789383.9484795237
1863,0.0
1873,0.0
2,2, 1, 2, 0,21, 0.00,60.00,Wednesday
1833,0.0
1843,6010506.338227123
1853,0.0
1863,0.0
1873,0.0
2,2, 1, 2, 0,22, 0.00,60.00,Wednesday
1833,0.0
1843,5647655.541864481
1853,1620881.662073168
1863,0.0
1873,0.0
2,2, 1, 2, 0,23, 0.00,60.00,Wednesday
1833,0.0
1843,5109394.01160371
1853,0.0
1863,0.0
1873,0.0
2,2, 1, 2, 0,24, 0.00,60.00,Wednesday
1833,0.0
1843,4305654.785275034
1853,1553048.9198349699
1863,0.0
1873,0.0
2,3, 1, 3, 0, 1, 0.00,60.00,Thursday
1833,0.0
1843,4060387.909370207
1853,0.0
1863,0.0
1873,0.0
2,3, 1, 3, 0, 2, 0.00,60.00,Thursday
1833,0.0
1843,4042989.3127539625
1853,0.0
1863,0.0
1873,0.0
2,3, 1, 3, 0, 3, 0.00,60.00,Thursday
1833,0.0
1843,4037279.2003245025
1853,1553203.0777344828
1863,0.0
1873,0.0
2,3, 1, 3, 0, 4, 0.00,60.00,Thursday
1833,0.0
1843,4163583.8592427915
1853,0.0
1863,0.0
1873,0.0
2,3, 1, 3, 0, 5, 0.00,60.00,Thursday
1833,0.0
1843,4314931.224609157
1853,1553220.188676014
1863,0.0
1873,0.0
2,3, 1, 3, 0, 6, 0.00,60.00,Thursday
1833,0.0
1843,4521855.255777267
1853,1751359.979467929
1863,0.0
1873,0.0
2,3, 1, 3, 0, 7, 0.00,60.00,Thursday
1833,0.0
1843,7224240.961749064
1853,1768193.332230925
1863,0.0
1873,0.0
2,3, 1, 3, 0, 8, 0.00,60.00,Thursday
1833,0.0
1843,5581286.299812212
1853,1653187.3221480642
1863,0.0
1873,0.0
2,3, 1, 3, 0, 9, 0.00,60.00,Thursday
1833,0.0
1843,5243036.734796679
1853,13344292.264320853
1863,0.0
1873,0.0
2,3, 1, 3, 0,10, 0.00,60.00,Thursday
1833,0.0
1843,5597655.330967088
1853,9820072.183649995
1863,0.0
1873,0.0
2,3, 1, 3, 0,11, 0.00,60.00,Thursday
1833,0.0
1843,5212618.551012484
1853,14764912.343812572
1863,0.0
1873,0.0
2,3, 1, 3, 0,12, 0.00,60.00,Thursday
1833,0.0
1843,4503762.775242064
1853,1553072.4277885487
1863,0.0
1873,0.0
2,3, 1, 3, 0,13, 0.00,60.00,Thursday
1833,0.0
1843,4424077.661251741
1853,7038640.950640902
1863,0.0
1873,0.0
2,3, 1, 3, 0,14, 0.00,60.00,Thursday
1833,0.0
1843,4423532.08123642
1853,0.0
1863,0.0
1873,0.0
2,3, 1, 3, 0,15, 0.00,60.00,Thursday
1833,0.0
1843,4523391.438453575
1853,1553195.4983789579
1863,0.0
1873,0.0
2,3, 1, 3, 0,16, 0.00,60.00,Thursday
1833,0.0
1843,4997302.302964297
1853,1707603.0967976626
1863,0.0
1873,0.0
2,3, 1, 3, 0,17, 0.00,60.00,Thursday
1833,0.0
1843,5919392.915453118
1853,0.0
1863,0.0
1873,0.0
2,3, 1, 3, 0,18, 0.00,60.00,Thursday
1833,0.0
1843,9830686.858527357
1853,1702685.476071824
1863,0.0
1873,0.0
2,3, 1, 3, 0,19, 0.00,60.00,Thursday
1833,0.0
1843,7224394.876961041
1853,17078225.684631066
1863,0.0
1873,0.0
2,3, 1, 3, 0,20, 0.00,60.00,Thursday
1833,0.0
1843,7107747.390541403
1853,8921987.270295799
1863,0.0
1873,0.0
2,3, 1, 3, 0,21, 0.00,60.00,Thursday
1833,0.0
1843,7467813.971040054
1853,5797083.294894775
1863,0.0
1873,0.0
2,3, 1, 3, 0,22, 0.00,60.00,Thursday
1833,0.0
1843,6998069.860312354
1853,0.0
1863,0.0
1873,0.0
2,3, 1, 3, 0,23, 0.00,60.00,Thursday
1833,0.0
1843,7440824.098566257
1853,1553221.5417304992
1863,0.0
1873,0.0
2,3, 1, 3, 0,24, 0.00,60.00,Thursday
1833,0.0
1843,7687107.132825414
1853,0.0
1863,0.0
1873,0.0
2,4, 1, 4, 0, 1, 0.00,60.00,Friday
1833,0.0
1843,8072085.013462342
1853,2011222.108738754
1863,0.0
1873,0.0
2,4, 1, 4, 0, 2, 0.00,60.00,Friday
1833,0.0
1843,9161397.447234322
1853,1553195.5718820946
1863,0.0
1873,0.0
2,4, 1, 4, 0, 3, 0.00,60.00,Friday
1833,0.0
1843,9846013.753608879
1853,0.0
1863,0.0
1873,0.0
2,4, 1, 4, 0, 4, 0.00,60.00,Friday
1833,0.0
1843,9803053.784346002
1853,1553212.7225750795
1863,0.0
1873,0.0
2,4, 1, 4, 0, 5, 0.00,60.00,Friday
1833,0.0
1843,9692593.489802188
1853,0.0
1863,0.0
1873,0.0
2,4, 1, 4, 0, 6, 0.00,60.00,Friday
1833,0.0
1843,9688880.699019745
1853,0.0
1863,0.0
1873,0.0
2,4, 1, 4, 0, 7, 0.00,60.00,Friday
1833,0.0
1843,15753810.198856572
1853,1553229.8464188958
1863,0.0
1873,0.0
2,4, 1, 4, 0, 8, 0.00,60.00,Friday
1833,0.0
1843,8878926.606328924
1853,0.0
1863,0.0
1873,0.0
2,4, 1, 4, 0, 9, 0.00,60.00,Friday
1833,0.0
1843,7473657.312448281
1853,1553242.4934365042
1863,0.0
1873,0.0
2,4, 1, 4, 0,10, 0.00,60.00,Friday
1833,0.0
1843,6181578.308027411
1853,16020344.507908019
1863,0.0
1873,0.0
2,4, 1, 4, 0,11, 0.00,60.00,Friday
1833,0.0
1843,7521829.551058832
1853,3719493.46925335
1863,0.0
1873,0.0
2,4, 1, 4, 0,12, 0.00,60.00,Friday
1833,0.0
1843,5944809.942003054
1853,9611658.409879718
1863,0.0
1873,0.0
2,4, 1, 4, 0,13, 0.00,60.00,Friday
1833,0.0
1843,5715553.518286698
1853,7200259.5113838859
1863,0.0
1873,0.0
2,4, 1, 4, 0,14, 0.00,60.00,Friday
1833,0.0
1843,4643285.220210297
1853,5653111.224383883
1863,0.0
1873,0.0
2,4, 1, 4, 0,15, 0.00,60.00,Friday
1833,0.0
1843,4507290.57163015
1853,3469573.3037534297
1863,0.0
1873,0.0
2,4, 1, 4, 0,16, 0.00,60.00,Friday
1833,0.0
1843,4621917.084246088
1853,1553190.2141344576
1863,0.0
1873,0.0
2,4, 1, 4, 0,17, 0.00,60.00,Friday
1833,0.0
1843,5096693.183220514
1853,10559907.711941122
1863,0.0
1873,0.0
2,4, 1, 4, 0,18, 0.00,60.00,Friday
1833,0.0
1843,6830011.308428168
1853,0.0
1863,0.0
1873,0.0
2,4, 1, 4, 0,19, 0.00,60.00,Friday
1833,0.0
1843,6332720.630986205
1853,1553227.8969186526
1863,0.0
1873,0.0
2,4, 1, 4, 0,20, 0.00,60.00,Friday
1833,0.0
1843,5914888.954842344
1853,1553213.361707188
1863,0.0
1873,0.0
2,4, 1, 4, 0,21, 0.00,60.00,Friday
1833,0.0
1843,5343312.835031477
1853,1553055.8916742386
1863,0.0
1873,0.0
2,4, 1, 4, 0,22, 0.00,60.00,Friday
1833,0.0
1843,4726270.252081199
1853,8491515.583790586
1863,0.0
1873,0.0
2,4, 1, 4, 0,23, 0.00,60.00,Friday
1833,0.0
1843,4298142.9742216099
1853,16181558.769199772
1863,0.0
1873,0.0
2,4, 1, 4, 0,24, 0.00,60.00,Friday
1833,0.0
1843,5419632.7164779989
1853,6930290.565407216
1863,0.0
1873,0.0
2,5, 1, 5, 0, 1, 0.00,60.00,Saturday
1833,0.0
1843,2984848.398926556
1853,0.0
1863,0.0
1873,0.0
2,5, 1, 5, 0, 2, 0.00,60.00,Saturday
1833,0.0
1843,2742050.7789545825
1853,1553227.6511182723
1863,0.0
1873,0.0
2,5, 1, 5, 0, 3, 0.00,60.00,Saturday
1833,0.0
1843,2415991.6581386255
1853,0.0
1863,0.0
1873,0.0
2,5, 1, 5, 0, 4, 0.00,60.00,Saturday
1833,0.0
1843,2408547.715107539
1853,0.0
1863,0.0
1873,0.0
2,5, 1, 5, 0, 5, 0.00,60.00,Saturday
1833,0.0
1843,2501895.1695380418
1853,1553244.788680349
1863,0.0
1873,0.0
2,5, 1, 5, 0, 6, 0.00,60.00,Saturday
1833,0.0
1843,2772745.0156380899
1853,1758157.6236516829
1863,0.0
1873,0.0
2,5, 1, 5, 0, 7, 0.00,60.00,Saturday
1833,0.0
1843,4437160.915663634
1853,0.0
1863,0.0
1873,0.0
2,5, 1, 5, 0, 8, 0.00,60.00,Saturday
1833,0.0
1843,3986160.949351338
1853,17780181.17407441
1863,0.0
1873,0.0
2,5, 1, 5, 0, 9, 0.00,60.00,Saturday
1833,0.0
1843,4264930.154751596
1853,1804476.0629152507
1863,0.0
1873,0.0
2,5, 1, 5, 0,10, 0.00,60.00,Saturday
1833,0.0
1843,4253385.9552113949
1853,0.0
1863,0.0
1873,0.0
2,5, 1, 5, 0,11, 0.00,60.00,Saturday
1833,0.0
1843,4352184.236044393
1853,1553228.3899809332
1863,0.0
1873,0.0
2,5, 1, 5, 0,12, 0.00,60.00,Saturday
1833,0.0
1843,4680500.018422622
1853,8140550.22816404
1863,0.0
1873,0.0
2,5, 1, 5, 0,13, 0.00,60.00,Saturday
1833,0.0
1843,3906275.6699595416
1853,1552934.1834363184
1863,0.0
1873,0.0
2,5, 1, 5, 0,14, 0.00,60.00,Saturday
1833,0.0
1843,4123138.902774209
1853,4372343.924653189
1863,0.0
1873,0.0
2,5, 1, 5, 0,15, 0.00,60.00,Saturday
1833,0.0
1843,3821403.8966460877
1853,1553231.729253261
1863,0.0
1873,0.0
2,5, 1, 5, 0,16, 0.00,60.00,Saturday
1833,0.0
1843,4104617.5316955477
1853,0.0
1863,0.0
1873,0.0
2,5, 1, 5, 0,17, 0.00,60.00,Saturday
1833,0.0
1843,4814376.282481677
1853,1553246.5859632684
1863,0.0
1873,0.0
2,5, 1, 5, 0,18, 0.00,60.00,Saturday
1833,0.0
1843,6933323.037501083
1853,6363485.44681124
1863,0.0
1873,0.0
2,5, 1, 5, 0,19, 0.00,60.00,Saturday
1833,0.0
1843,6113129.74310938
1853,1375561.2745436517
1863,0.0
1873,0.0
2,5, 1, 5, 0,20, 0.00,60.00,Saturday
1833,0.0
1843,5939062.904010742
1853,0.0
1863,0.0
1873,0.0
2,5, 1, 5, 0,21, 0.00,60.00,Saturday
1833,0.0
1843,5488848.134406485
1853,1553220.0929260206
1863,0.0
1873,0.0
2,5, 1, 5, 0,22, 0.00,60.00,Saturday
1833,0.0
1843,5234030.230908668
1853,0.0
1863,0.0
1873,0.0
2,5, 1, 5, 0,23, 0.00,60.00,Saturday
1833,0.0
1843,4833336.915304936
1853,0.0
1863,0.0
1873,0.0
2,5, 1, 5, 0,24, 0.00,60.00,Saturday
1833,0.0
1843,3994980.7879112914
1853,1553237.3493705113
1863,0.0
1873,0.0
2,6, 1, 6, 0, 1, 0.00,60.00,Sunday
1833,0.0
1843,5770945.5833080499
1853,11671679.352758114
1863,0.0
1873,0.0
2,6, 1, 6, 0, 2, 0.00,60.00,Sunday
1833,0.0
1843,3983877.9550340727
1853,3132416.2325146535
1863,0.0
1873,0.0
2,6, 1, 6, 0, 3, 0.00,60.00,Sunday
1833,0.0
1843,3436275.4913962294
1853,0.0
1863,0.0
1873,0.0
2,6, 1, 6, 0, 4, 0.00,60.00,Sunday
1833,0.0
1843,3531120.4348441904
1853,1553199.629759539
1863,0.0
1873,0.0
2,6, 1, 6, 0, 5, 0.00,60.00,Sunday
1833,0.0
1843,3776052.037561301
1853,0.0
1863,0.0
1873,0.0
2,6, 1, 6, 0, 6, 0.00,60.00,Sunday
1833,0.0
1843,4043762.0082678415
1853,1553142.6443341783
1863,0.0
1873,0.0
2,6, 1, 6, 0, 7, 0.00,60.00,Sunday
1833,0.0
1843,6252769.44703972
1853,0.0
1863,0.0
1873,0.0
2,6, 1, 6, 0, 8, 0.00,60.00,Sunday
1833,0.0
1843,5327134.07409729
1853,1553193.8018737988
1863,0.0
1873,0.0
2,6, 1, 6, 0, 9, 0.00,60.00,Sunday
1833,0.0
1843,5255587.382265834
1853,0.0
1863,0.0
1873,0.0
2,6, 1, 6, 0,10, 0.00,60.00,Sunday
1833,0.0
1843,5251255.901999972
1853,3912658.1403556738
1863,0.0
1873,0.0
2,6, 1, 6, 0,11, 0.00,60.00,Sunday
1833,0.0
1843,6342335.883859089
1853,2522624.4456355085
1863,0.0
1873,0.0
2,6, 1, 6, 0,12, 0.00,60.00,Sunday
1833,0.0
1843,5058011.554034233
1853,723665.9873265862
1863,0.0
1873,0.0
2,6, 1, 6, 0,13, 0.00,60.00,Sunday
1833,0.0
1843,4879560.014543535
1853,3813191.683150233
1863,0.0
1873,0.0
2,6, 1, 6, 0,14, 0.00,60.00,Sunday
1833,0.0
1843,4735924.0831564939
1853,1655634.4327254957
1863,0.0
1873,0.0
2,6, 1, 6, 0,15, 0.00,60.00,Sunday
1833,0.0
1843,4608815.44309709
1853,0.0
1863,0.0
1873,0.0
2,6, 1, 6, 0,16, 0.00,60.00,Sunday
1833,0.0
1843,4820804.182347275
1853,1627167.9120760204
1863,0.0
1873,0.0
2,6, 1, 6, 0,17, 0.00,60.00,Sunday
1833,0.0
1843,5620241.947672801
1853,1837399.1656709377
1863,0.0
1873,0.0
2,6, 1, 6, 0,18, 0.00,60.00,Sunday
1833,0.0
1843,8259282.450867146
1853,1838144.4511588489
1863,0.0
1873,0.0
2,6, 1, 6, 0,19, 0.00,60.00,Sunday
1833,0.0
1843,6249580.239713148
1853,38673359.48915729
1863,0.0
1873,0.0
2,6, 1, 6, 0,20, 0.00,60.00,Sunday
1833,0.0
1843,7018081.691548339
1853,0.0
1863,0.0
1873,0.0
2,6, 1, 6, 0,21, 0.00,60.00,Sunday
1833,0.0
1843,6608604.224159648
1853,6412045.261033373
1863,0.0
1873,0.0
2,6, 1, 6, 0,22, 0.00,60.00,Sunday
1833,0.0
1843,6439000.85296534
1853,6059022.302081021
1863,0.0
1873,0.0
2,6, 1, 6, 0,23, 0.00,60.00,Sunday
1833,0.0
1843,6430022.654639327
1853,1553216.7898485198
1863,0.0
1873,0.0
2,6, 1, 6, 0,24, 0.00,60.00,Sunday
1833,0.0
1843,6046730.277674026
1853,0.0
1863,0.0
1873,0.0
2,7, 1, 7, 0, 1, 0.00,60.00,Monday
1833,0.0
1843,6268667.389337213
1853,0.0
1863,0.0
1873,0.0
2,7, 1, 7, 0, 2, 0.00,60.00,Monday
1833,0.0
1843,6247873.302372238
1853,1674652.4565014935
1863,0.0
1873,0.0
2,7, 1, 7, 0, 3, 0.00,60.00,Monday
1833,0.0
1843,6856880.011275433
1853,1502056.1725366712
1863,0.0
1873,0.0
2,7, 1, 7, 0, 4, 0.00,60.00,Monday
1833,0.0
1843,7828798.3240658729
1853,0.0
1863,0.0
1873,0.0
2,7, 1, 7, 0, 5, 0.00,60.00,Monday
1833,0.0
1843,8670686.658739172
1853,1562141.1808889774
1863,0.0
1873,0.0
2,7, 1, 7, 0, 6, 0.00,60.00,Monday
1833,0.0
1843,9028433.637212133
1853,0.0
1863,0.0
1873,0.0
2,7, 1, 7, 0, 7, 0.00,60.00,Monday
1833,0.0
1843,15417314.93268147
1853,3670438.3940108877
1863,0.0
1873,0.0
2,7, 1, 7, 0, 8, 0.00,60.00,Monday
1833,0.0
1843,7472170.316041706
1853,1553245.3046328168
1863,0.0
1873,0.0
2,7, 1, 7, 0, 9, 0.00,60.00,Monday
1833,0.0
1843,6722589.923649887
1853,7127360.562129622
1863,0.0
1873,0.0
2,7, 1, 7, 0,10, 0.00,60.00,Monday
1833,0.0
1843,6485776.637288658
1853,5150155.195467772
1863,0.0
1873,0.0
2,7, 1, 7, 0,11, 0.00,60.00,Monday
1833,0.0
1843,7105831.305484312
1853,0.0
1863,0.0
1873,0.0
2,7, 1, 7, 0,12, 0.00,60.00,Monday
1833,0.0
1843,5598648.464736359
1853,0.0
1863,0.0
1873,0.0
2,7, 1, 7, 0,13, 0.00,60.00,Monday
1833,0.0
1843,5173750.5530862179
1853,4268820.622397693
1863,0.0
1873,0.0
2,7, 1, 7, 0,14, 0.00,60.00,Monday
1833,0.0
1843,5069852.257981599
1853,1600460.3256128566
1863,0.0
1873,0.0
2,7, 1, 7, 0,15, 0.00,60.00,Monday
1833,0.0
1843,5038866.469071348
1853,0.0
1863,0.0
1873,0.0
2,7, 1, 7, 0,16, 0.00,60.00,Monday
1833,0.0
1843,5218878.334955318
1853,1553205.6260682883
1863,0.0
1873,0.0
2,7, 1, 7, 0,17, 0.00,60.00,Monday
1833,0.0
1843,5646790.720704361
1853,0.0
1863,0.0
1873,0.0
2,7, 1, 7, 0,18, 0.00,60.00,Monday
1833,0.0
1843,7212981.981529694
1853,1553213.5548367243
1863,0.0
1873,0.0
2,7, 1, 7, 0,19, 0.00,60.00,Monday
1833,0.0
1843,6450050.155842399
1853,0.0
1863,0.0
1873,0.0
2,7, 1, 7, 0,20, 0.00,60.00,Monday
1833,0.0
1843,6124837.055326321
1853,1560465.7922048663
1863,0.0
1873,0.0
2,7, 1, 7, 0,21, 0.00,60.00,Monday
1833,0.0
1843,5844486.849569306
1853,1553239.421376187
1863,0.0
1873,0.0
2,7, 1, 7, 0,22, 0.00,60.00,Monday
1833,0.0
1843,5631845.100417997
1853,2021821.3981084494
1863,0.0
1873,0.0
2,7, 1, 7, 0,23, 0.00,60.00,Monday
1833,0.0
1843,5378681.059314294
1853,1552942.7307878896
1863,0.0
1873,0.0
2,7, 1, 7, 0,24, 0.00,60.00,Monday
1833,0.0
1843,4361053.276613234
1853,3644511.7652137645
1863,0.0
1873,0.0
2,8, 1, 8, 0, 1, 0.00,60.00,Tuesday
1833,0.0
1843,3704065.905341554
1853,9484875.147371032
1863,0.0
1873,0.0
2,8, 1, 8, 0, 2, 0.00,60.00,Tuesday
1833,0.0
1843,3860246.448432579
1853,0.0
1863,0.0
1873,0.0
2,8, 1, 8, 0, 3, 0.00,60.00,Tuesday
1833,0.0
1843,3969942.0536161356
1853,0.0
1863,0.0
1873,0.0
2,8, 1, 8, 0, 4, 0.00,60.00,Tuesday
1833,0.0
1843,4233067.323189462
1853,1553192.7060490994
1863,0.0
1873,0.0
2,8, 1, 8, 0, 5, 0.00,60.00,Tuesday
1833,0.0
1843,4563983.026639025
1853,0.0
1863,0.0
1873,0.0
2,8, 1, 8, 0, 6, 0.00,60.00,Tuesday
1833,0.0
1843,4851937.3446053699
1853,1553210.210847334
1863,0.0
1873,0.0
2,8, 1, 8, 0, 7, 0.00,60.00,Tuesday
1833,0.0
1843,9128403.78581886
1853,0.0
1863,0.0
1873,0.0
2,8, 1, 8, 0, 8, 0.00,60.00,Tuesday
1833,0.0
1843,5772862.064257486
1853,5164885.141798059
1863,0.0
1873,0.0
2,8, 1, 8, 0, 9, 0.00,60.00,Tuesday
1833,0.0
1843,4910688.57388757
1853,13785983.998727963
1863,0.0
1873,0.0
2,8, 1, 8, 0,10, 0.00,60.00,Tuesday
1833,0.0
1843,4714667.733509959
1853,6969250.885391183
1863,0.0
1873,0.0
2,8, 1, 8, 0,11, 0.00,60.00,Tuesday
1833,0.0
1843,5337901.616245989
1853,5057016.343916038
1863,0.0
1873,0.0
2,8, 1, 8, 0,12, 0.00,60.00,Tuesday
1833,0.0
1843,4595406.988970135
1853,2029237.9713514979
1863,0.0
1873,0.0
2,8, 1, 8, 0,13, 0.00,60.00,Tuesday
1833,0.0
1843,4240240.305861596
1853,0.0
1863,0.0
1873,0.0
2,8, 1, 8, 0,14, 0.00,60.00,Tuesday
1833,0.0
1843,3976468.453410852
1853,1553245.3545177603
1863,0.0
1873,0.0
2,8, 1, 8, 0,15, 0.00,60.00,Tuesday
1833,0.0
1843,3888557.3354673695
1853,1794019.0094609755
1863,0.0
1873,0.0
2,8, 1, 8, 0,16, 0.00,60.00,Tuesday
1833,0.0
1843,4097374.620018667
1853,0.0
1863,0.0
1873,0.0
2,8, 1, 8, 0,17, 0.00,60.00,Tuesday
1833,0.0
1843,5958772.148985845
1853,5764688.734349297
1863,0.0
1873,0.0
2,8, 1, 8, 0,18, 0.00,60.00,Tuesday
1833,0.0
1843,7674442.842771913
1853,14037281.20498233
1863,0.0
1873,0.0
2,8, 1, 8, 0,19, 0.00,60.00,Tuesday
1833,0.0
1843,6632060.004295031
1853,0.0
1863,0.0
1873,0.0
2,8, 1, 8, 0,20, 0.00,60.00,Tuesday
1833,0.0
1843,6430401.319472388
1853,0.0
1863,0.0
1873,0.0
2,8, 1, 8, 0,21, 0.00,60.00,Tuesday
1833,0.0
1843,5941511.281480464
1853,1554270.736205551
1863,0.0
1873,0.0
2,8, 1, 8, 0,22, 0.00,60.00,Tuesday
1833,0.0
1843,5543058.1583426319
1853,4662279.279836588
1863,0.0
1873,0.0
2,8, 1, 8, 0,23, 0.00,60.00,Tuesday
1833,0.0
1843,5276157.136121632
1853,0.0
1863,0.0
1873,0.0
2,8, 1, 8, 0,24, 0.00,60.00,Tuesday
1833,0.0
1843,4593445.385411796
1853,1553194.7235047853
1863,0.0
1873,0.0
2,9, 1, 9, 0, 1, 0.00,60.00,Wednesday
1833,0.0
1843,4449943.987480382
1853,0.0
1863,0.0
1873,0.0
2,9, 1, 9, 0, 2, 0.00,60.00,Wednesday
1833,0.0
1843,4408936.666721317
1853,0.0
1863,0.0
1873,0.0
2,9, 1, 9, 0, 3, 0.00,60.00,Wednesday
1833,0.0
1843,4376974.614577453
1853,1553217.1782016925
1863,0.0
1873,0.0
2,9, 1, 9, 0, 4, 0.00,60.00,Wednesday
1833,0.0
1843,4407750.527835642
1853,0.0
1863,0.0
1873,0.0
2,9, 1, 9, 0, 5, 0.00,60.00,Wednesday
1833,0.0
1843,4564953.211308961
1853,0.0
1863,0.0
1873,0.0
2,9, 1, 9, 0, 6, 0.00,60.00,Wednesday
1833,0.0
1843,4802613.4812628789
1853,3410223.5554635047
1863,0.0
1873,0.0
2,9, 1, 9, 0, 7, 0.00,60.00,Wednesday
1833,0.0
1843,9446766.168643857
1853,0.0
1863,0.0
1873,0.0
2,9, 1, 9, 0, 8, 0.00,60.00,Wednesday
1833,0.0
1843,5782804.816995494
1853,1553204.217300138
1863,0.0
1873,0.0
2,9, 1, 9, 0, 9, 0.00,60.00,Wednesday
1833,0.0
1843,5181773.2237574509
1853,0.0
1863,0.0
1873,0.0
2,9, 1, 9, 0,10, 0.00,60.00,Wednesday
1833,0.0
1843,4939695.018544257
1853,3664788.9275090575
1863,0.0
1873,0.0
2,9, 1, 9, 0,11, 0.00,60.00,Wednesday
1833,0.0
1843,5589508.753475303
1853,1553114.7412818447
1863,0.0
1873,0.0
2,9, 1, 9, 0,12, 0.00,60.00,Wednesday
1833,0.0
1843,4713857.115226937
1853,0.0
1863,0.0
1873,0.0
2,9, 1, 9, 0,13, 0.00,60.00,Wednesday
1833,0.0
1843,4646103.284971667
1853,0.0
1863,0.0
1873,0.0
2,9, 1, 9, 0,14, 0.00,60.00,Wednesday
1833,0.0
1843,4452902.88469728
1853,1553231.8008899992
1863,0.0
1873,0.0
2,9, 1, 9, 0,15, 0.00,60.00,Wednesday
1833,0.0
1843,4282526.708803442
1853,0.0
1863,0.0
1873,0.0
2,9, 1, 9, 0,16, 0.00,60.00,Wednesday
1833,0.0
1843,4405772.427987892
1853,5385539.861643387
1863,0.0
1873,0.0
2,9, 1, 9, 0,17, 0.00,60.00,Wednesday
1833,0.0
1843,5169267.989445411
1853,1798757.3164279084
1863,0.0
1873,0.0
2,9, 1, 9, 0,18, 0.00,60.00,Wednesday
1833,0.0
1843,7509310.295979688
1853,0.0
1863,0.0
1873,0.0
2,9, 1, 9, 0,19, 0.00,60.00,Wednesday
1833,0.0
1843,6670907.41295244
1853,1695376.8348906348
1863,0.0
1873,0.0
2,9, 1, 9, 0,20, 0.00,60.00,Wednesday
1833,0.0
1843,6386538.467624941
1853,1687590.9605108416
1863,0.0
1873,0.0
2,9, 1, 9, 0,21, 0.00,60.00,Wednesday
1833,0.0
1843,5975209.947266918
1853,1665905.251917396
1863,0.0
1873,0.0
2,9, 1, 9, 0,22, 0.00,60.00,Wednesday
1833,0.0
1843,5763911.912301728
1853,0.0
1863,0.0
1873,0.0
2,9, 1, 9, 0,23, 0.00,60.00,Wednesday
1833,0.0
1843,5482452.408638789
1853,331468.80014337287
1863,0.0
1873,0.0
2,9, 1, 9, 0,24, 0.00,60.00,Wednesday
1833,0.0
1843,4948991.649451363
1853,1221570.4555715784
1863,0.0
1873,0.0
2,10, 1,10, 0, 1, 0.00,60.00,Thursday
1833,0.0
1843,4745943.417510787
1853,0.0
1863,0.0
1873,0.0
2,10, 1,10, 0, 2, 0.00,60.00,Thursday
1833,0.0
1843,4735949.629052126
1853,1553195.5369314496
1863,0.0
1873,0.0
2,10, 1,10, 0, 3, 0.00,60.00,Thursday
1833,0.0
1843,4723698.386320233
1853,0.0
1863,0.0
1873,0.0
2,10, 1,10, 0, 4, 0.00,60.00,Thursday
1833,0.0
1843,4888410.665566547
1853,3840775.8025963145
1863,0.0
1873,0.0
2,10, 1,10, 0, 5, 0.00,60.00,Thursday
1833,0.0
1843,5364685.9136902899
1853,0.0
1863,0.0
1873,0.0
2,10, 1,10, 0, 6, 0.00,60.00,Thursday
1833,0.0
1843,5825649.0631622089
1853,0.0
1863,0.0
1873,0.0
2,10, 1,10, 0, 7, 0.00,60.00,Thursday
1833,0.0
1843,10662856.24550188
1853,3376424.6895139298
1863,0.0
1873,0.0
2,10, 1,10, 0, 8, 0.00,60.00,Thursday
1833,0.0
1843,5385207.570319972
1853,30456428.461584405
1863,0.0
1873,0.0
2,10, 1,10, 0, 9, 0.00,60.00,Thursday
1833,0.0
1843,5640100.631117207
1853,0.0
1863,0.0
1873,0.0
2,10, 1,10, 0,10, 0.00,60.00,Thursday
1833,0.0
1843,5156508.278304916
1853,3276725.1310694895
1863,0.0
1873,0.0
2,10, 1,10, 0,11, 0.00,60.00,Thursday
1833,0.0
1843,5505795.171540292
1853,8538671.49377489
1863,0.0
1873,0.0
2,10, 1,10, 0,12, 0.00,60.00,Thursday
1833,0.0
1843,4553131.153821576
1853,0.0
1863,0.0
1873,0.0
2,10, 1,10, 0,13, 0.00,60.00,Thursday
1833,0.0
1843,4358579.700153488
1853,0.0
1863,0.0
1873,0.0
2,10, 1,10, 0,14, 0.00,60.00,Thursday
1833,0.0
1843,4147666.8156413126
1853,1553237.925021462
1863,0.0
1873,0.0
2,10, 1,10, 0,15, 0.00,60.00,Thursday
1833,0.0
1843,3991888.0276463076
1853,3217851.616002079
1863,0.0
1873,0.0
2,10, 1,10, 0,16, 0.00,60.00,Thursday
1833,0.0
1843,4170610.2377842168
1853,0.0
1863,0.0
1873,0.0
2,10, 1,10, 0,17, 0.00,60.00,Thursday
1833,0.0
1843,4969861.743894574
1853,0.0
1863,0.0
1873,0.0
2,10, 1,10, 0,18, 0.00,60.00,Thursday
1833,0.0
1843,7432676.82290763
1853,1553173.6437603979
1863,0.0
1873,0.0
2,10, 1,10, 0,19, 0.00,60.00,Thursday
1833,0.0
1843,6671679.194882015
1853,1722878.9859566214
1863,0.0
1873,0.0
2,10, 1,10, 0,20, 0.00,60.00,Thursday
1833,0.0
1843,6513555.256068861
1853,1824691.9172046425
1863,0.0
1873,0.0
2,10, 1,10, 0,21, 0.00,60.00,Thursday
1833,0.0
1843,5968636.71058406
1853,1553214.955840699
1863,0.0
1873,0.0
2,10, 1,10, 0,22, 0.00,60.00,Thursday
1833,0.0
1843,5737237.479901035
1853,0.0
1863,0.0
1873,0.0
2,10, 1,10, 0,23, 0.00,60.00,Thursday
1833,0.0
1843,5582946.742345168
1853,1881761.9025751162
1863,0.0
1873,0.0
2,10, 1,10, 0,24, 0.00,60.00,Thursday
1833,0.0
1843,4563761.338912637
1853,18085788.783915719
1863,0.0
1873,0.0
2,11, 1,11, 0, 1, 0.00,60.00,Friday
1833,0.0
1843,4859956.072960077
1853,0.0
1863,0.0
1873,0.0
2,11, 1,11, 0, 2, 0.00,60.00,Friday
1833,0.0
1843,4906236.932257969
1853,0.0
1863,0.0
1873,0.0
2,11, 1,11, 0, 3, 0.00,60.00,Friday
1833,0.0
1843,4906226.266858386
1853,1553228.0963951967
1863,0.0
1873,0.0
2,11, 1,11, 0, 4, 0.00,60.00,Friday
1833,0.0
1843,5010875.222127137
1853,0.0
1863,0.0
1873,0.0
2,11, 1,11, 0, 5, 0.00,60.00,Friday
1833,0.0
1843,4972879.235325627
1853,1553245.1895854809
1863,0.0
1873,0.0
2,11, 1,11, 0, 6, 0.00,60.00,Friday
1833,0.0
1843,5075547.829320353
1853,1553216.9171919306
1863,0.0
1873,0.0
2,11, 1,11, 0, 7, 0.00,60.00,Friday
1833,0.0
1843,9246665.683884975
1853,0.0
1863,0.0
1873,0.0
2,11, 1,11, 0, 8, 0.00,60.00,Friday
1833,0.0
1843,6034494.674160064
1853,1779821.5944222499
1863,0.0
1873,0.0
2,11, 1,11, 0, 9, 0.00,60.00,Friday
1833,0.0
1843,5813732.813724035
1853,1552987.8538686366
1863,0.0
1873,0.0
2,11, 1,11, 0,10, 0.00,60.00,Friday
1833,0.0
1843,5348218.754520761
1853,0.0
1863,0.0
1873,0.0
2,11, 1,11, 0,11, 0.00,60.00,Friday
1833,0.0
1843,5556101.249391774
1853,0.0
1863,0.0
1873,0.0
2,11, 1,11, 0,12, 0.00,60.00,Friday
1833,0.0
1843,4461408.572257007
1853,1553086.9727994966
1863,0.0
1873,0.0
2,11, 1,11, 0,13, 0.00,60.00,Friday
1833,0.0
1843,4278109.113377364
1853,0.0
1863,0.0
1873,0.0
2,11, 1,11, 0,14, 0.00,60.00,Friday
1833,0.0
1843,4362539.182538261
1853,5621121.616502043
1863,0.0
1873,0.0
2,11, 1,11, 0,15, 0.00,60.00,Friday
1833,0.0
1843,4030119.2832912646
1853,0.0
1863,0.0
1873,0.0
2,11, 1,11, 0,16, 0.00,60.00,Friday
1833,0.0
1843,4527827.204719082
1853,4111676.236857416
1863,0.0
1873,0.0
2,11, 1,11, 0,17, 0.00,60.00,Friday
1833,0.0
1843,5198693.397646481
1853,6227021.560551138
1863,0.0
1873,0.0
2,11, 1,11, 0,18, 0.00,60.00,Friday
1833,0.0
1843,6431500.128297433
1853,7455357.033384379
1863,0.0
1873,0.0
2,11, 1,11, 0,19, 0.00,60.00,Friday
1833,0.0
1843,6040614.09546849
1853,1537234.4689869139
1863,0.0
1873,0.0
2,11, 1,11, 0,20, 0.00,60.00,Friday
1833,0.0
1843,5740313.966900999
1853,3620508.2362562057
1863,0.0
1873,0.0
2,11, 1,11, 0,21, 0.00,60.00,Friday
1833,0.0
1843,5292750.3817881089
1853,1553221.1679975158
1863,0.0
1873,0.0
2,11, 1,11, 0,22, 0.00,60.00,Friday
1833,0.0
1843,4755233.689047509
1853,0.0
1863,0.0
1873,0.0
2,11, 1,11, 0,23, 0.00,60.00,Friday