Program Version,EnergyPlus, Version 8.8.0-7c3bbe4830, YMD=2022.12.02 10:54
1,5,Environment Title[],Latitude[deg],Longitude[deg],Time Zone[],Elevation[m]
2,6,Day of Simulation[],Month[],Day of Month[],DST Indicator[1=yes 0=no],Hour[],StartMinute[],EndMinute[],DayType
3,3,Cumulative Day of Simulation[],Month[],Day of Month[],DST Indicator[1=yes 0=no],DayType  ! When Daily Meters Requested
4,2,Cumulative Days of Simulation[],Month[]  ! When Monthly Meters Requested
5,1,Cumulative Days of Simulation[] ! When Run Period Meters Requested
1854,1,ELECTRICITY:UNIT_1 [J] !Hourly
1864,1,GAS:UNIT_1 [J] !Hourly
1884,1,PROPANE:UNIT_1 [m3] !Hourly
1874,1,FUELOIL:UNIT_1 [m3] !Hourly
1844,1,PV:ELECTRICITY_1 [J] !Hourly
End of Data Dictionary
1,DENVER INTL AP CO 2500 SQFT,  39.83,-104.65,  -7.00,1650.00
2,1, 1, 1, 0, 1, 0.00,60.00,Tuesday
1844,0.0
1854,1873142.1659572384
1864,11177634.459805282
1874,0.0
1884,0.0
2,1, 1, 1, 0, 2, 0.00,60.00,Tuesday
1844,0.0
1854,1657865.3392213609
1864,12656329.245376358
1874,0.0
1884,0.0
2,1, 1, 1, 0, 3, 0.00,60.00,Tuesday
1844,0.0
1854,1523699.3996864446
1864,13943479.209378642
1874,0.0
1884,0.0
2,1, 1, 1, 0, 4, 0.00,60.00,Tuesday
1844,0.0
1854,1481165.0913933153
1864,12601784.793135755
1874,0.0
1884,0.0
2,1, 1, 1, 0, 5, 0.00,60.00,Tuesday
1844,0.0
1854,1555359.467243978
1864,13855927.292924345
1874,0.0
1884,0.0
2,1, 1, 1, 0, 6, 0.00,60.00,Tuesday
1844,0.0
1854,1842760.2009824524
1864,12059198.434705038
1874,0.0
1884,0.0
2,1, 1, 1, 0, 7, 0.00,60.00,Tuesday
1844,0.0
1854,2743771.772372949
1864,17103108.814231557
1874,0.0
1884,0.0
2,1, 1, 1, 0, 8, 0.00,60.00,Tuesday
1844,0.0
1854,3260039.6180161137
1864,12263090.590276808
1874,0.0
1884,0.0
2,1, 1, 1, 0, 9, 0.00,60.00,Tuesday
1844,0.0
1854,3492553.7169950285
1864,15477010.184153073
1874,0.0
1884,0.0
2,1, 1, 1, 0,10, 0.00,60.00,Tuesday
1844,0.0
1854,3697988.3462791957
1864,27549947.133281046
1874,0.0
1884,0.0
2,1, 1, 1, 0,11, 0.00,60.00,Tuesday
1844,0.0
1854,3759912.0536619557
1864,23199168.970309549
1874,0.0
1884,0.0
2,1, 1, 1, 0,12, 0.00,60.00,Tuesday
1844,0.0
1854,3785111.5710046517
1864,5954592.630630693
1874,0.0
1884,0.0
2,1, 1, 1, 0,13, 0.00,60.00,Tuesday
1844,0.0
1854,3754483.119550708
1864,9102958.47247997
1874,0.0
1884,0.0
2,1, 1, 1, 0,14, 0.00,60.00,Tuesday
1844,0.0
1854,3824167.510895412
1864,7448122.471252128
1874,0.0
1884,0.0
2,1, 1, 1, 0,15, 0.00,60.00,Tuesday
1844,0.0
1854,3700573.1199119749
1864,30059227.61779431
1874,0.0
1884,0.0
2,1, 1, 1, 0,16, 0.00,60.00,Tuesday
1844,0.0
1854,3982603.7021742158
1864,9091262.898439696
1874,0.0
1884,0.0
2,1, 1, 1, 0,17, 0.00,60.00,Tuesday
1844,0.0
1854,4234909.25155798
1864,9529861.40936426
1874,0.0
1884,0.0
2,1, 1, 1, 0,18, 0.00,60.00,Tuesday
1844,0.0
1854,5241755.817711194
1864,12899173.19538585
1874,0.0
1884,0.0
2,1, 1, 1, 0,19, 0.00,60.00,Tuesday
1844,0.0
1854,5377977.093138569
1864,8710585.476303963
1874,0.0
1884,0.0
2,1, 1, 1, 0,20, 0.00,60.00,Tuesday
1844,0.0
1854,4973893.943409041
1864,11247932.17654875
1874,0.0
1884,0.0
2,1, 1, 1, 0,21, 0.00,60.00,Tuesday
1844,0.0
1854,4368234.864433751
1864,23200070.689657839
1874,0.0
1884,0.0
2,1, 1, 1, 0,22, 0.00,60.00,Tuesday
1844,0.0
1854,3827500.358840032
1864,8308179.631943796
1874,0.0
1884,0.0
2,1, 1, 1, 0,23, 0.00,60.00,Tuesday
1844,0.0
1854,3331011.9494294144
1864,8723080.65245675
1874,0.0
1884,0.0
2,1, 1, 1, 0,24, 0.00,60.00,Tuesday
1844,0.0
1854,2326278.490096325
1864,11073394.593602416
1874,0.0
1884,0.0
2,2, 1, 2, 0, 1, 0.00,60.00,Wednesday
1844,0.0
1854,1853135.5077823252
1864,10006973.662999835
1874,0.0
1884,0.0
2,2, 1, 2, 0, 2, 0.00,60.00,Wednesday
1844,0.0
1854,1638917.8956961735
1864,11876128.697893249
1874,0.0
1884,0.0
2,2, 1, 2, 0, 3, 0.00,60.00,Wednesday
1844,0.0
1854,1513707.545831047
1864,10439146.406022834
1874,0.0
1884,0.0
2,2, 1, 2, 0, 4, 0.00,60.00,Wednesday
1844,0.0
1854,1461704.9210183167
1864,10746351.29529245
1874,0.0
1884,0.0
2,2, 1, 2, 0, 5, 0.00,60.00,Wednesday
1844,0.0
1854,1538580.1337185698
1864,12245458.375509054
1874,0.0
1884,0.0
2,2, 1, 2, 0, 6, 0.00,60.00,Wednesday
1844,0.0
1854,1800247.851815207
1864,40703559.649590019
1874,0.0
1884,0.0
2,2, 1, 2, 0, 7, 0.00,60.00,Wednesday
1844,0.0
1854,2707840.0728908909
1864,28713463.605809969
1874,0.0
1884,0.0
2,2, 1, 2, 0, 8, 0.00,60.00,Wednesday
1844,0.0
1854,3232263.534400971
1864,18365690.093038437
1874,0.0
1884,0.0
2,2, 1, 2, 0, 9, 0.00,60.00,Wednesday
1844,0.0
1854,3471895.560050143
1864,14545655.573347368
1874,0.0
1884,0.0
2,2, 1, 2, 0,10, 0.00,60.00,Wednesday
1844,0.0
1854,3704716.03998153
1864,6890216.734540749
1874,0.0
1884,0.0
2,2, 1, 2, 0,11, 0.00,60.00,Wednesday
1844,0.0
1854,3746721.5847519899
1864,9900786.983535046
1874,0.0
1884,0.0
2,2, 1, 2, 0,12, 0.00,60.00,Wednesday
1844,0.0
1854,5304840.498532514
1864,9547186.141193534
1874,0.0
1884,0.0
2,2, 1, 2, 0,13, 0.00,60.00,Wednesday
1844,0.0
1854,3735450.4802106467
1864,7740101.555817187
1874,0.0
1884,0.0
2,2, 1, 2, 0,14, 0.00,60.00,Wednesday
1844,0.0
1854,3606059.06876297
1864,4171495.890885287
1874,0.0
1884,0.0
2,2, 1, 2, 0,15, 0.00,60.00,Wednesday
1844,0.0
1854,3545770.39197348
1864,5602004.642270379
1874,0.0
1884,0.0
2,2, 1, 2, 0,16, 0.00,60.00,Wednesday
1844,0.0
1854,3673545.244527775
1864,5118881.350676268
1874,0.0
1884,0.0
2,2, 1, 2, 0,17, 0.00,60.00,Wednesday
1844,0.0
1854,4201658.946986237
1864,7456209.601058675
1874,0.0
1884,0.0
2,2, 1, 2, 0,18, 0.00,60.00,Wednesday
1844,0.0
1854,5209035.775122209
1864,8949526.938911716
1874,0.0
1884,0.0
2,2, 1, 2, 0,19, 0.00,60.00,Wednesday
1844,0.0
1854,5354688.344262156
1864,6493682.979059738
1874,0.0
1884,0.0
2,2, 1, 2, 0,20, 0.00,60.00,Wednesday
1844,0.0
1854,4960721.779517327
1864,7319164.2901077889
1874,0.0
1884,0.0
2,2, 1, 2, 0,21, 0.00,60.00,Wednesday
1844,0.0
1854,4362998.188066086
1864,6073871.779008516
1874,0.0
1884,0.0
2,2, 1, 2, 0,22, 0.00,60.00,Wednesday
1844,0.0
1854,3804715.5679134989
1864,8210650.574975015
1874,0.0
1884,0.0
2,2, 1, 2, 0,23, 0.00,60.00,Wednesday
1844,0.0
1854,3310629.9865839516
1864,6683564.030387748
1874,0.0
1884,0.0
2,2, 1, 2, 0,24, 0.00,60.00,Wednesday
1844,0.0
1854,2304033.2463477647
1864,8867037.866378556
1874,0.0
1884,0.0
2,3, 1, 3, 0, 1, 0.00,60.00,Thursday
1844,0.0
1854,1830410.868041333
1864,7825586.0026572
1874,0.0
1884,0.0
2,3, 1, 3, 0, 2, 0.00,60.00,Thursday
1844,0.0
1854,1617791.3946259297
1864,8309336.2982295169
1874,0.0
1884,0.0
2,3, 1, 3, 0, 3, 0.00,60.00,Thursday
1844,0.0
1854,1494100.8562171292
1864,10124671.583962715
1874,0.0
1884,0.0
2,3, 1, 3, 0, 4, 0.00,60.00,Thursday
1844,0.0
1854,1443120.3901994429
1864,8936215.677119444
1874,0.0
1884,0.0
2,3, 1, 3, 0, 5, 0.00,60.00,Thursday
1844,0.0
1854,1521289.400201666
1864,10634435.945647333
1874,0.0
1884,0.0
2,3, 1, 3, 0, 6, 0.00,60.00,Thursday
1844,0.0
1854,1810176.145055773
1864,10681809.610179155
1874,0.0
1884,0.0
2,3, 1, 3, 0, 7, 0.00,60.00,Thursday
1844,0.0
1854,2697457.065263267
1864,14136252.369971216
1874,0.0
1884,0.0
2,3, 1, 3, 0, 8, 0.00,60.00,Thursday
1844,0.0
1854,3220475.5497085398
1864,9688829.038359303
1874,0.0
1884,0.0
2,3, 1, 3, 0, 9, 0.00,60.00,Thursday
1844,0.0
1854,3679518.892428219
1864,19361736.434235638
1874,0.0
1884,0.0
2,3, 1, 3, 0,10, 0.00,60.00,Thursday
1844,0.0
1854,4459221.404936671
1864,15296406.17535312
1874,0.0
1884,0.0
2,3, 1, 3, 0,11, 0.00,60.00,Thursday
1844,0.0
1854,3951083.60138346
1864,21431996.58160762
1874,0.0
1884,0.0
2,3, 1, 3, 0,12, 0.00,60.00,Thursday
1844,0.0
1854,3762025.00741062
1864,5426592.7871977719
1874,0.0
1884,0.0
2,3, 1, 3, 0,13, 0.00,60.00,Thursday
1844,0.0
1854,3736400.932269899
1864,10477195.971205976
1874,0.0
1884,0.0
2,3, 1, 3, 0,14, 0.00,60.00,Thursday
1844,0.0
1854,3603626.2830942196
1864,3991688.915868084
1874,0.0
1884,0.0
2,3, 1, 3, 0,15, 0.00,60.00,Thursday
1844,0.0
1854,3550238.9109894896
1864,5660950.691297961
1874,0.0
1884,0.0
2,3, 1, 3, 0,16, 0.00,60.00,Thursday
1844,0.0
1854,3685905.839139753
1864,6743903.9297214769
1874,0.0
1884,0.0
2,3, 1, 3, 0,17, 0.00,60.00,Thursday
1844,0.0
1854,4220403.169170679
1864,6035951.369329685
1874,0.0
1884,0.0
2,3, 1, 3, 0,18, 0.00,60.00,Thursday
1844,0.0
1854,5245332.4739856789
1864,13111461.464156397
1874,0.0
1884,0.0
2,3, 1, 3, 0,19, 0.00,60.00,Thursday
1844,0.0
1854,5398609.960512607
1864,22466173.59768655
1874,0.0
1884,0.0
2,3, 1, 3, 0,20, 0.00,60.00,Thursday
1844,0.0
1854,4974350.571713513
1864,15244316.660274938
1874,0.0
1884,0.0
2,3, 1, 3, 0,21, 0.00,60.00,Thursday
1844,0.0
1854,4788119.775872572
1864,13292721.462222306
1874,0.0
1884,0.0
2,3, 1, 3, 0,22, 0.00,60.00,Thursday
1844,0.0
1854,3821794.3850081285
1864,8445647.564797679
1874,0.0
1884,0.0
2,3, 1, 3, 0,23, 0.00,60.00,Thursday
1844,0.0
1854,3335403.755776771
1864,10761839.715988396
1874,0.0
1884,0.0
2,3, 1, 3, 0,24, 0.00,60.00,Thursday
1844,0.0
1854,2333659.8948980567
1864,10202537.645452824
1874,0.0
1884,0.0
2,4, 1, 4, 0, 1, 0.00,60.00,Friday
1844,0.0
1854,1861205.8356832059
1864,12842820.91490093
1874,0.0
1884,0.0
2,4, 1, 4, 0, 2, 0.00,60.00,Friday
1844,0.0
1854,1652346.515205736
1864,13295764.26641891
1874,0.0
1884,0.0
2,4, 1, 4, 0, 3, 0.00,60.00,Friday
1844,0.0
1854,1532934.669094883
1864,12354928.312147648
1874,0.0
1884,0.0
2,4, 1, 4, 0, 4, 0.00,60.00,Friday
1844,0.0
1854,1481223.6903473526
1864,14116111.653871596
1874,0.0
1884,0.0
2,4, 1, 4, 0, 5, 0.00,60.00,Friday
1844,0.0
1854,1557351.9720345373
1864,12574554.747663757
1874,0.0
1884,0.0
2,4, 1, 4, 0, 6, 0.00,60.00,Friday
1844,0.0
1854,1846573.7414253082
1864,12440486.372893589
1874,0.0
1884,0.0
2,4, 1, 4, 0, 7, 0.00,60.00,Friday
1844,0.0
1854,2747527.1461187528
1864,19051559.896886413
1874,0.0
1884,0.0
2,4, 1, 4, 0, 8, 0.00,60.00,Friday
1844,0.0
1854,3266332.230291399
1864,11193386.029192636
1874,0.0
1884,0.0
2,4, 1, 4, 0, 9, 0.00,60.00,Friday
1844,0.0
1854,3497678.124311017
1864,11588604.103118588
1874,0.0
1884,0.0
2,4, 1, 4, 0,10, 0.00,60.00,Friday
1844,0.0
1854,3776315.113749492
1864,23789097.908949447
1874,0.0
1884,0.0
2,4, 1, 4, 0,11, 0.00,60.00,Friday
1844,0.0
1854,4037995.170266187
1864,15399184.553265434
1874,0.0
1884,0.0
2,4, 1, 4, 0,12, 0.00,60.00,Friday
1844,0.0
1854,4145516.9283891499
1864,17003974.574407836
1874,0.0
1884,0.0
2,4, 1, 4, 0,13, 0.00,60.00,Friday
1844,0.0
1854,4425848.4377558869
1864,14101177.342117796
1874,0.0
1884,0.0
2,4, 1, 4, 0,14, 0.00,60.00,Friday
1844,0.0
1854,3625202.972005279
1864,12174096.346764252
1874,0.0
1884,0.0
2,4, 1, 4, 0,15, 0.00,60.00,Friday
1844,0.0
1854,3573516.871269845
1864,9662866.560487882
1874,0.0
1884,0.0
2,4, 1, 4, 0,16, 0.00,60.00,Friday
1844,0.0
1854,3693723.677962064
1864,7693144.305030302
1874,0.0
1884,0.0
2,4, 1, 4, 0,17, 0.00,60.00,Friday
1844,0.0
1854,4212093.965028749
1864,15875971.780503668
1874,0.0
1884,0.0
2,4, 1, 4, 0,18, 0.00,60.00,Friday
1844,0.0
1854,5217163.401990746
1864,8408412.229837096
1874,0.0
1884,0.0
2,4, 1, 4, 0,19, 0.00,60.00,Friday
1844,0.0
1854,5363630.697628426
1864,6971508.777534484
1874,0.0
1884,0.0
2,4, 1, 4, 0,20, 0.00,60.00,Friday
1844,0.0
1854,4960161.428278053
1864,6958982.073858671
1874,0.0
1884,0.0
2,4, 1, 4, 0,21, 0.00,60.00,Friday
1844,0.0
1854,4357599.561074233
1864,7108089.869579948
1874,0.0
1884,0.0
2,4, 1, 4, 0,22, 0.00,60.00,Friday
1844,0.0
1854,3803226.5754308637
1864,13625123.358743962
1874,0.0
1884,0.0
2,4, 1, 4, 0,23, 0.00,60.00,Friday
1844,0.0
1854,3286820.648826056
1864,21392186.128952087
1874,0.0
1884,0.0
2,4, 1, 4, 0,24, 0.00,60.00,Friday
1844,0.0
1854,4463768.056386786
1864,12555196.766906463
1874,0.0
1884,0.0
2,5, 1, 5, 0, 1, 0.00,60.00,Saturday
1844,0.0
1854,1837054.1264859688
1864,6529423.28674591
1874,0.0
1884,0.0
2,5, 1, 5, 0, 2, 0.00,60.00,Saturday
1844,0.0
1854,1616142.7011789028
1864,8300272.147180223
1874,0.0
1884,0.0
2,5, 1, 5, 0, 3, 0.00,60.00,Saturday
1844,0.0
1854,1474724.8359256134
1864,6312048.332182968
1874,0.0
1884,0.0
2,5, 1, 5, 0, 4, 0.00,60.00,Saturday
1844,0.0
1854,1422925.159365455
1864,6558127.855477111
1874,0.0
1884,0.0
2,5, 1, 5, 0, 5, 0.00,60.00,Saturday
1844,0.0
1854,1504042.318503509
1864,8070723.358382798
1874,0.0
1884,0.0
2,5, 1, 5, 0, 6, 0.00,60.00,Saturday
1844,0.0
1854,1796532.9279677156
1864,8086703.950094782
1874,0.0
1884,0.0
2,5, 1, 5, 0, 7, 0.00,60.00,Saturday
1844,0.0
1854,2703706.058613541
1864,8701036.381538846
1874,0.0
1884,0.0
2,5, 1, 5, 0, 8, 0.00,60.00,Saturday
1844,0.0
1854,3243802.6893873407
1864,22093364.58521463
1874,0.0
1884,0.0
2,5, 1, 5, 0, 9, 0.00,60.00,Saturday
1844,0.0
1854,3648143.8260754637
1864,5383621.27531833
1874,0.0
1884,0.0
2,5, 1, 5, 0,10, 0.00,60.00,Saturday
1844,0.0
1854,3808009.256271333
1864,2574265.809852926
1874,0.0
1884,0.0
2,5, 1, 5, 0,11, 0.00,60.00,Saturday
1844,0.0
1854,3794569.510816253
1864,4753521.279672143
1874,0.0
1884,0.0
2,5, 1, 5, 0,12, 0.00,60.00,Saturday
1844,0.0
1854,4476832.615400529
1864,9236632.90199468
1874,0.0
1884,0.0
2,5, 1, 5, 0,13, 0.00,60.00,Saturday
1844,0.0
1854,3797477.509601414
1864,2119963.294943008
1874,0.0
1884,0.0
2,5, 1, 5, 0,14, 0.00,60.00,Saturday
1844,0.0
1854,4009651.719112333
1864,4964586.473091394
1874,0.0
1884,0.0
2,5, 1, 5, 0,15, 0.00,60.00,Saturday
1844,0.0
1854,3632969.3557685969
1864,2551197.461952367
1874,0.0
1884,0.0
2,5, 1, 5, 0,16, 0.00,60.00,Saturday
1844,0.0
1854,3782658.160730467
1864,1661005.726425746
1874,0.0
1884,0.0
2,5, 1, 5, 0,17, 0.00,60.00,Saturday
1844,0.0
1854,4304863.287597004
1864,4035419.2492486389
1874,0.0
1884,0.0
2,5, 1, 5, 0,18, 0.00,60.00,Saturday
1844,0.0
1854,5877146.245599681
1864,12072618.94133
1874,0.0
1884,0.0
2,5, 1, 5, 0,19, 0.00,60.00,Saturday
1844,0.0
1854,5447258.8987183109
1864,4329691.661065395
1874,0.0
1884,0.0
2,5, 1, 5, 0,20, 0.00,60.00,Saturday
1844,0.0
1854,5051408.775078576
1864,3719951.6251648229
1874,0.0
1884,0.0
2,5, 1, 5, 0,21, 0.00,60.00,Saturday
1844,0.0
1854,4458044.722425872
1864,5724735.982296597
1874,0.0
1884,0.0
2,5, 1, 5, 0,22, 0.00,60.00,Saturday
1844,0.0
1854,3912868.9857612589
1864,5062960.8493888559
1874,0.0
1884,0.0
2,5, 1, 5, 0,23, 0.00,60.00,Saturday
1844,0.0
1854,3394992.0549946136
1864,5463558.630685707
1874,0.0
1884,0.0
2,5, 1, 5, 0,24, 0.00,60.00,Saturday
1844,0.0
1854,2346561.3335365757
1864,7869065.860957661
1874,0.0
1884,0.0
2,6, 1, 6, 0, 1, 0.00,60.00,Sunday
1844,0.0
1854,4285899.542675771
1864,17149590.24516896
1874,0.0
1884,0.0
2,6, 1, 6, 0, 2, 0.00,60.00,Sunday
1844,0.0
1854,2262582.2221264338
1864,9703715.698680127
1874,0.0
1884,0.0
2,6, 1, 6, 0, 3, 0.00,60.00,Sunday
1844,0.0
1854,1488928.5636640003
1864,7271045.861460646
1874,0.0
1884,0.0
2,6, 1, 6, 0, 4, 0.00,60.00,Sunday
1844,0.0
1854,1433693.02717009
1864,9132253.492940763
1874,0.0
1884,0.0
2,6, 1, 6, 0, 5, 0.00,60.00,Sunday
1844,0.0
1854,1517754.5560182525
1864,7903650.381978414
1874,0.0
1884,0.0
2,6, 1, 6, 0, 6, 0.00,60.00,Sunday
1844,0.0
1854,1812098.612110551
1864,9401962.213693304
1874,0.0
1884,0.0
2,6, 1, 6, 0, 7, 0.00,60.00,Sunday
1844,0.0
1854,2723204.60493396
1864,11500589.02445769
1874,0.0
1884,0.0
2,6, 1, 6, 0, 8, 0.00,60.00,Sunday
1844,0.0
1854,3283220.042178843
1864,8760209.621491883
1874,0.0
1884,0.0
2,6, 1, 6, 0, 9, 0.00,60.00,Sunday
1844,0.0
1854,3562934.4287730238
1864,6275799.597227246
1874,0.0
1884,0.0
2,6, 1, 6, 0,10, 0.00,60.00,Sunday
1844,0.0
1854,3840069.1118206859
1864,9101471.266353874
1874,0.0
1884,0.0
2,6, 1, 6, 0,11, 0.00,60.00,Sunday
1844,0.0
1854,3920584.8030807354
1864,10926470.046913822
1874,0.0
1884,0.0
2,6, 1, 6, 0,12, 0.00,60.00,Sunday
1844,0.0
1854,3947270.0101919777
1864,4814623.129662754
1874,0.0
1884,0.0
2,6, 1, 6, 0,13, 0.00,60.00,Sunday
1844,0.0
1854,3902565.437274051
1864,7478045.130872087
1874,0.0
1884,0.0
2,6, 1, 6, 0,14, 0.00,60.00,Sunday
1844,0.0
1854,3746670.90815649
1864,5353658.592787286
1874,0.0
1884,0.0
2,6, 1, 6, 0,15, 0.00,60.00,Sunday
1844,0.0
1854,3670415.551488118
1864,3476326.5788108927
1874,0.0
1884,0.0
2,6, 1, 6, 0,16, 0.00,60.00,Sunday
1844,0.0
1854,3807174.8636102725
1864,5351461.447148392
1874,0.0
1884,0.0
2,6, 1, 6, 0,17, 0.00,60.00,Sunday
1844,0.0
1854,4326880.999623619
1864,6578274.70198656
1874,0.0
1884,0.0
2,6, 1, 6, 0,18, 0.00,60.00,Sunday
1844,0.0
1854,5339665.913009133
1864,11409190.15690979
1874,0.0
1884,0.0
2,6, 1, 6, 0,19, 0.00,60.00,Sunday
1844,0.0
1854,5451665.862476099
1864,41213163.96151308
1874,0.0
1884,0.0
2,6, 1, 6, 0,20, 0.00,60.00,Sunday
1844,0.0
1854,5078766.101098952
1864,6335933.838965803
1874,0.0
1884,0.0
2,6, 1, 6, 0,21, 0.00,60.00,Sunday
1844,0.0
1854,4485447.903601251
1864,12949023.380089004
1874,0.0
1884,0.0
2,6, 1, 6, 0,22, 0.00,60.00,Sunday
1844,0.0
1854,3931431.0377151186
1864,13249582.771369229
1874,0.0
1884,0.0
2,6, 1, 6, 0,23, 0.00,60.00,Sunday
1844,0.0
1854,3424233.2765675366
1864,9880615.978017755
1874,0.0
1884,0.0
2,6, 1, 6, 0,24, 0.00,60.00,Sunday
1844,0.0
1854,2376288.4109628836
1864,9193373.151355276
1874,0.0
1884,0.0
2,7, 1, 7, 0, 1, 0.00,60.00,Monday
1844,0.0
1854,1851287.3185168934
1864,9856230.383465589
1874,0.0
1884,0.0
2,7, 1, 7, 0, 2, 0.00,60.00,Monday
1844,0.0
1854,1637523.5608559913
1864,11813314.285929379
1874,0.0
1884,0.0
2,7, 1, 7, 0, 3, 0.00,60.00,Monday
1844,0.0
1854,1514452.5680778288
1864,12162879.054999382
1874,0.0
1884,0.0
2,7, 1, 7, 0, 4, 0.00,60.00,Monday
1844,0.0
1854,1467332.555809009
1864,11302819.20672289
1874,0.0
1884,0.0
2,7, 1, 7, 0, 5, 0.00,60.00,Monday
1844,0.0
1854,1547946.3341051297
1864,13285965.184082414
1874,0.0
1884,0.0
2,7, 1, 7, 0, 6, 0.00,60.00,Monday
1844,0.0
1854,1839786.2154859347
1864,11795423.633017416
1874,0.0
1884,0.0
2,7, 1, 7, 0, 7, 0.00,60.00,Monday
1844,0.0
1854,2746464.4772870244
1864,21164411.806485245
1874,0.0
1884,0.0
2,7, 1, 7, 0, 8, 0.00,60.00,Monday
1844,0.0
1854,3260825.7678538558
1864,11712987.053557709
1874,0.0
1884,0.0
2,7, 1, 7, 0, 9, 0.00,60.00,Monday
1844,0.0
1854,4047701.0790425224
1864,15945717.655235049
1874,0.0
1884,0.0
2,7, 1, 7, 0,10, 0.00,60.00,Monday
1844,0.0
1854,4106087.7990049368
1864,13554400.829288025
1874,0.0
1884,0.0
2,7, 1, 7, 0,11, 0.00,60.00,Monday
1844,0.0
1854,3779260.6089746316
1864,11568427.707593836
1874,0.0
1884,0.0
2,7, 1, 7, 0,12, 0.00,60.00,Monday
1844,0.0
1854,3806849.7126314139
1864,7665834.844736833
1874,0.0
1884,0.0
2,7, 1, 7, 0,13, 0.00,60.00,Monday
1844,0.0
1854,3770000.25784335
1864,11382648.157180695
1874,0.0
1884,0.0
2,7, 1, 7, 0,14, 0.00,60.00,Monday
1844,0.0
1854,3636175.3026089088
1864,8830360.75216034
1874,0.0
1884,0.0
2,7, 1, 7, 0,15, 0.00,60.00,Monday
1844,0.0
1854,3582866.2155715895
1864,7234454.255670526
1874,0.0
1884,0.0
2,7, 1, 7, 0,16, 0.00,60.00,Monday
1844,0.0
1854,3706088.564922773
1864,8814148.151373264
1874,0.0
1884,0.0
2,7, 1, 7, 0,17, 0.00,60.00,Monday
1844,0.0
1854,4230065.961815396
1864,6994285.849050413
1874,0.0
1884,0.0
2,7, 1, 7, 0,18, 0.00,60.00,Monday
1844,0.0
1854,5225432.640226087
1864,10748765.701903524
1874,0.0
1884,0.0
2,7, 1, 7, 0,19, 0.00,60.00,Monday
1844,0.0
1854,5368114.965768605
1864,5793241.933051948
1874,0.0
1884,0.0
2,7, 1, 7, 0,20, 0.00,60.00,Monday
1844,0.0
1854,4964587.672992058
1864,7437398.417955451
1874,0.0
1884,0.0
2,7, 1, 7, 0,21, 0.00,60.00,Monday
1844,0.0
1854,4364339.558149376
1864,7811795.820214538
1874,0.0
1884,0.0
2,7, 1, 7, 0,22, 0.00,60.00,Monday
1844,0.0
1854,3818395.2728557295
1864,8867117.445733533
1874,0.0
1884,0.0
2,7, 1, 7, 0,23, 0.00,60.00,Monday
1844,0.0
1854,3311471.142662178
1864,8960220.839595605
1874,0.0
1884,0.0
2,7, 1, 7, 0,24, 0.00,60.00,Monday
1844,0.0
1854,2308098.1798198756
1864,11243251.104881
1874,0.0
1884,0.0
2,8, 1, 8, 0, 1, 0.00,60.00,Tuesday
1844,0.0
1854,1823413.0330036726
1864,16603152.186354926
1874,0.0
1884,0.0
2,8, 1, 8, 0, 2, 0.00,60.00,Tuesday
1844,0.0
1854,1616865.1030124769
1864,8203381.1943422709
1874,0.0
1884,0.0
2,8, 1, 8, 0, 3, 0.00,60.00,Tuesday
1844,0.0
1854,1493934.9601003638
1864,8594507.053639165
1874,0.0
1884,0.0
2,8, 1, 8, 0, 4, 0.00,60.00,Tuesday
1844,0.0
1854,1445096.89629666
1864,10737090.31387486
1874,0.0
1884,0.0
2,8, 1, 8, 0, 5, 0.00,60.00,Tuesday
1844,0.0
1854,1526390.5563219225
1864,9598894.21101981
1874,0.0
1884,0.0
2,8, 1, 8, 0, 6, 0.00,60.00,Tuesday
1844,0.0
1854,1815597.3342268724
1864,10972705.822492645
1874,0.0
1884,0.0
2,8, 1, 8, 0, 7, 0.00,60.00,Tuesday
1844,0.0
1854,2707956.209167438
1864,13552993.989628077
1874,0.0
1884,0.0
2,8, 1, 8, 0, 8, 0.00,60.00,Tuesday
1844,0.0
1854,3222864.9377009177
1864,13191620.400116373
1874,0.0
1884,0.0
2,8, 1, 8, 0, 9, 0.00,60.00,Tuesday
1844,0.0
1854,3456109.7438465945
1864,19174385.720942115
1874,0.0
1884,0.0
2,8, 1, 8, 0,10, 0.00,60.00,Tuesday
1844,0.0
1854,3678553.7046064746
1864,11661893.306570882
1874,0.0
1884,0.0
2,8, 1, 8, 0,11, 0.00,60.00,Tuesday
1844,0.0
1854,4127173.289172885
1864,11636283.707492553
1874,0.0
1884,0.0
2,8, 1, 8, 0,12, 0.00,60.00,Tuesday
1844,0.0
1854,3945254.2468972688
1864,5548339.35126616
1874,0.0
1884,0.0
2,8, 1, 8, 0,13, 0.00,60.00,Tuesday
1844,0.0
1854,3730862.7265158866
1864,2839619.194323158
1874,0.0
1884,0.0
2,8, 1, 8, 0,14, 0.00,60.00,Tuesday
1844,0.0
1854,3584631.0222243939
1864,3751642.3225594649
1874,0.0
1884,0.0
2,8, 1, 8, 0,15, 0.00,60.00,Tuesday
1844,0.0
1854,3527494.433549058
1864,3679982.434024454
1874,0.0
1884,0.0
2,8, 1, 8, 0,16, 0.00,60.00,Tuesday
1844,0.0
1854,3652940.857269264
1864,2187353.267460103
1874,0.0
1884,0.0
2,8, 1, 8, 0,17, 0.00,60.00,Tuesday
1844,0.0
1854,5349025.857960111
1864,8558207.604150864
1874,0.0
1884,0.0
2,8, 1, 8, 0,18, 0.00,60.00,Tuesday
1844,0.0
1854,5984037.60714527
1864,20622636.194107627
1874,0.0
1884,0.0
2,8, 1, 8, 0,19, 0.00,60.00,Tuesday
1844,0.0
1854,5351456.53581512
1864,4670798.247941611
1874,0.0
1884,0.0
2,8, 1, 8, 0,20, 0.00,60.00,Tuesday
1844,0.0
1854,4954067.445684804
1864,5353101.062698751
1874,0.0
1884,0.0
2,8, 1, 8, 0,21, 0.00,60.00,Tuesday
1844,0.0
1854,4360013.294471685
1864,7339090.6232130019
1874,0.0
1884,0.0
2,8, 1, 8, 0,22, 0.00,60.00,Tuesday
1844,0.0
1854,3804884.188795001
1864,10801108.774209163
1874,0.0
1884,0.0
2,8, 1, 8, 0,23, 0.00,60.00,Tuesday
1844,0.0
1854,3310992.3962614655
1864,6768136.537128976
1874,0.0
1884,0.0
2,8, 1, 8, 0,24, 0.00,60.00,Tuesday
1844,0.0
1854,2306252.794853258
1864,9103323.570045306
1874,0.0
1884,0.0
2,9, 1, 9, 0, 1, 0.00,60.00,Wednesday
1844,0.0
1854,1834684.3146389817
1864,8269415.749637447
1874,0.0
1884,0.0
2,9, 1, 9, 0, 2, 0.00,60.00,Wednesday
1844,0.0
1854,1622066.9537305427
1864,8701151.660592486
1874,0.0
1884,0.0
2,9, 1, 9, 0, 3, 0.00,60.00,Wednesday
1844,0.0
1854,1498088.2720238872
1864,10512564.171213892
1874,0.0
1884,0.0
2,9, 1, 9, 0, 4, 0.00,60.00,Wednesday
1844,0.0
1854,1446006.5497543412
1864,9186574.679150593
1874,0.0
1884,0.0
2,9, 1, 9, 0, 5, 0.00,60.00,Wednesday
1844,0.0
1854,1523649.8642592377
1864,9326152.415555936
1874,0.0
1884,0.0
2,9, 1, 9, 0, 6, 0.00,60.00,Wednesday
1844,0.0
1854,1812952.0930004314
1864,12602337.307232166
1874,0.0
1884,0.0
2,9, 1, 9, 0, 7, 0.00,60.00,Wednesday
1844,0.0
1854,2707496.593365894
1864,13538156.253085664
1874,0.0
1884,0.0
2,9, 1, 9, 0, 8, 0.00,60.00,Wednesday
1844,0.0
1854,3231024.1899901574
1864,9682683.080186662
1874,0.0
1884,0.0
2,9, 1, 9, 0, 9, 0.00,60.00,Wednesday
1844,0.0
1854,3459638.4864928445
1864,6414631.2621567859
1874,0.0
1884,0.0
2,9, 1, 9, 0,10, 0.00,60.00,Wednesday
1844,0.0
1854,3682588.2412650415
1864,8726063.223768376
1874,0.0
1884,0.0
2,9, 1, 9, 0,11, 0.00,60.00,Wednesday
1844,0.0
1854,3736249.337616757
1864,9074846.574409299
1874,0.0
1884,0.0
2,9, 1, 9, 0,12, 0.00,60.00,Wednesday
1844,0.0
1854,3765671.274149841
1864,4058714.0347454149
1874,0.0
1884,0.0
2,9, 1, 9, 0,13, 0.00,60.00,Wednesday
1844,0.0
1854,3740177.170313701
1864,3768130.894096892
1874,0.0
1884,0.0
2,9, 1, 9, 0,14, 0.00,60.00,Wednesday
1844,0.0
1854,3600562.997679482
1864,5121821.399975179
1874,0.0
1884,0.0
2,9, 1, 9, 0,15, 0.00,60.00,Wednesday
1844,0.0
1854,3540818.8439040707
1864,3109828.8884399088
1874,0.0
1884,0.0
2,9, 1, 9, 0,16, 0.00,60.00,Wednesday
1844,0.0
1854,3662335.794776488
1864,8485947.735421392
1874,0.0
1884,0.0
2,9, 1, 9, 0,17, 0.00,60.00,Wednesday
1844,0.0
1854,4201286.61245987
1864,5872954.119847168
1874,0.0
1884,0.0
2,9, 1, 9, 0,18, 0.00,60.00,Wednesday
1844,0.0
1854,5217609.642366642
1864,8437797.625523547
1874,0.0
1884,0.0
2,9, 1, 9, 0,19, 0.00,60.00,Wednesday
1844,0.0
1854,5352909.914033518
1864,6687899.213493512
1874,0.0
1884,0.0
2,9, 1, 9, 0,20, 0.00,60.00,Wednesday
1844,0.0
1854,4959817.598550892
1864,7139995.340289039
1874,0.0
1884,0.0
2,9, 1, 9, 0,21, 0.00,60.00,Wednesday
1844,0.0
1854,4361121.510377835
1864,7628800.855961205
1874,0.0
1884,0.0
2,9, 1, 9, 0,22, 0.00,60.00,Wednesday
1844,0.0
1854,3811092.7572473275
1864,6725783.578319477
1874,0.0
1884,0.0
2,9, 1, 9, 0,23, 0.00,60.00,Wednesday
1844,0.0
1854,3314897.4955005717
1864,7511267.80847495
1874,0.0
1884,0.0
2,9, 1, 9, 0,24, 0.00,60.00,Wednesday
1844,0.0
1854,2312565.3050824424
1864,9406560.154207482
1874,0.0
1884,0.0
2,10, 1,10, 0, 1, 0.00,60.00,Thursday
1844,0.0
1854,1840287.7926118826
1864,8768595.504075898
1874,0.0
1884,0.0
2,10, 1,10, 0, 2, 0.00,60.00,Thursday
1844,0.0
1854,1627336.9000517396
1864,10790395.79846341
1874,0.0
1884,0.0
2,10, 1,10, 0, 3, 0.00,60.00,Thursday
1844,0.0
1854,1503478.3921157988
1864,9464292.859464802
1874,0.0
1884,0.0
2,10, 1,10, 0, 4, 0.00,60.00,Thursday
1844,0.0
1854,1450884.0206845187
1864,13537491.286448636
1874,0.0
1884,0.0
2,10, 1,10, 0, 5, 0.00,60.00,Thursday
1844,0.0
1854,1530906.7036696098
1864,10027337.094160013
1874,0.0
1884,0.0
2,10, 1,10, 0, 6, 0.00,60.00,Thursday
1844,0.0
1854,1821831.6632079774
1864,10088658.940575168
1874,0.0
1884,0.0
2,10, 1,10, 0, 7, 0.00,60.00,Thursday
1844,0.0
1854,2717553.4070569064
1864,17776636.608208755
1874,0.0
1884,0.0
2,10, 1,10, 0, 8, 0.00,60.00,Thursday
1844,0.0
1854,3207801.3231168754
1864,36973577.844863209
1874,0.0
1884,0.0
2,10, 1,10, 0, 9, 0.00,60.00,Thursday
1844,0.0
1854,3473347.1109842068
1864,7093223.98398542
1874,0.0
1884,0.0
2,10, 1,10, 0,10, 0.00,60.00,Thursday
1844,0.0
1854,3687744.981401055
1864,8856767.354689418
1874,0.0
1884,0.0
2,10, 1,10, 0,11, 0.00,60.00,Thursday
1844,0.0
1854,3734141.8176011389
1864,15605570.914289738
1874,0.0
1884,0.0
2,10, 1,10, 0,12, 0.00,60.00,Thursday
1844,0.0
1854,3766682.1818872687
1864,3898736.803447106
1874,0.0
1884,0.0
2,10, 1,10, 0,13, 0.00,60.00,Thursday
1844,0.0
1854,3734092.739023477
1864,3184877.0382990206
1874,0.0
1884,0.0
2,10, 1,10, 0,14, 0.00,60.00,Thursday
1844,0.0
1854,3589742.2206454707
1864,4407552.765405831
1874,0.0
1884,0.0
2,10, 1,10, 0,15, 0.00,60.00,Thursday
1844,0.0
1854,3532097.6240592135
1864,5474908.7349740969
1874,0.0
1884,0.0
2,10, 1,10, 0,16, 0.00,60.00,Thursday
1844,0.0
1854,3658201.655962496
1864,2466004.1108208589
1874,0.0
1884,0.0
2,10, 1,10, 0,17, 0.00,60.00,Thursday
1844,0.0
1854,4193082.22377123
1864,3428541.751800481
1874,0.0
1884,0.0
2,10, 1,10, 0,18, 0.00,60.00,Thursday
1844,0.0
1854,5215542.640785247
1864,9756272.893008626
1874,0.0
1884,0.0
2,10, 1,10, 0,19, 0.00,60.00,Thursday
1844,0.0
1854,5352579.433545113
1864,6490718.173826734
1874,0.0
1884,0.0
2,10, 1,10, 0,20, 0.00,60.00,Thursday
1844,0.0
1854,4960866.4429542389
1864,7384350.372517953
1874,0.0
1884,0.0
2,10, 1,10, 0,21, 0.00,60.00,Thursday
1844,0.0
1854,4356333.1705309129
1864,7427207.239117017
1874,0.0
1884,0.0
2,10, 1,10, 0,22, 0.00,60.00,Thursday
1844,0.0
1854,3809217.32912396
1864,6623150.648686815
1874,0.0
1884,0.0
2,10, 1,10, 0,23, 0.00,60.00,Thursday
1844,0.0
1854,3315892.585221866
1864,9097177.280041883
1874,0.0
1884,0.0
2,10, 1,10, 0,24, 0.00,60.00,Thursday
1844,0.0
1854,2298493.568001108
1864,24984809.06083088
1874,0.0
1884,0.0
2,11, 1,11, 0, 1, 0.00,60.00,Friday
1844,0.0
1854,1841940.806115184
1864,8923995.82630179
1874,0.0
1884,0.0
2,11, 1,11, 0, 2, 0.00,60.00,Friday
1844,0.0
1854,1629409.2950979802
1864,9453412.654398947
1874,0.0
1884,0.0
2,11, 1,11, 0, 3, 0.00,60.00,Friday
1844,0.0
1854,1505538.1464464174
1864,11204366.711185229
1874,0.0
1884,0.0
2,11, 1,11, 0, 4, 0.00,60.00,Friday
1844,0.0
1854,1453383.5735602144
1864,9916511.621562418
1874,0.0
1884,0.0
2,11, 1,11, 0, 5, 0.00,60.00,Friday
1844,0.0
1854,1530667.4791179128
1864,11525982.308795289
1874,0.0
1884,0.0
2,11, 1,11, 0, 6, 0.00,60.00,Friday
1844,0.0
1854,1818898.7316907915
1864,11309437.033975233
1874,0.0
1884,0.0
2,11, 1,11, 0, 7, 0.00,60.00,Friday
1844,0.0
1854,2709987.499465058
1864,13680572.209606743
1874,0.0
1884,0.0
2,11, 1,11, 0, 8, 0.00,60.00,Friday
1844,0.0
1854,3228711.61801021
1864,10472891.910911225
1874,0.0
1884,0.0
2,11, 1,11, 0, 9, 0.00,60.00,Friday
1844,0.0
1854,3478098.510390762
1864,9251115.32437806
1874,0.0
1884,0.0
2,11, 1,11, 0,10, 0.00,60.00,Friday
1844,0.0
1854,3696182.6304183455
1864,6189086.539366605
1874,0.0
1884,0.0
2,11, 1,11, 0,11, 0.00,60.00,Friday
1844,0.0
1854,3744292.9985805896
1864,7903073.089615673
1874,0.0
1884,0.0